# --- 1. Old Netlify App Domain to New Custom Domain (MOST IMPORTANT) ---
# Permanently moves traffic from the old domain to the new one.
https://relexinteractive.netliy.app/* https://www.relexinteractive.com/:splat 301!

# --- 2. Naked Domain (Non-WWW) to WWW Enforcement ---
# Forces the use of 'www.' for SEO consistency.
https://relexinteractive.com/* https://www.relexinteractive.com/:splat 301!

# --- 3. HTTP to HTTPS Enforcement (Standard Security) ---
# Ensures all traffic is secured, regardless of how they type the domain.
http://www.relexinteractive.com/* https://www.relexinteractive.com/:splat 301!
http://relexinteractive.com/* https://www.relexinteractive.com/:splat 301!

# --- 4. Clean URL Rewrites (Map User URL to Physical File Location) ---
/games                    /src/pages/games.html         200
/newswire                 /src/pages/newswire.html      200
/about                    /src/pages/about.html         200
/contact                  /src/pages/contact.html       200

# **FIXED DETAIL REWRITES:** # A request to /games?id=... will be caught by /games/* and rewritten to the detail page.
/games/*                  /src/pages/game-details.html  200

# A request to /newswire?id=... will be caught by /newswire/* and rewritten to the newswire page.
/newswire/*               /src/pages/newswire.html      200

# --- 5. Custom 404 Page Setup ---
/* /src/pages/404.html 404